# vtk DataFile Version 3.0
vtk output
ASCII
DATASET UNSTRUCTURED_GRID
POINTS 3880 float
20.0001 20 20 19.9999 20 20 20 20.0001 20 
20 19.9999 20 20 20 20.0001 20 20 19.9999 
20 20 20 20 20 20 20 20 20 
20 20 20 20 20 20 20 20 20 
20 20 20 20 20 20 20 20 20 
20 20 20 20 20 20 20 20 20 
20 20 20 20 20 20 20 20 20 
20 20 20 20 20 20 20 20 20 
20 20 20 20 20 20 20.0001 20 20 
20.0001 20 20 20.0001 20 20 20.0001 20 20 
19.9999 20 20 19.9999 20 20 19.9999 20 20 
19.9999 20 20 20 20.0001 20 20 20.0001 20 
20 20.0001 20 20 20.0001 20 20 19.9999 20 
20 19.9999 20 20 19.9999 20 20 19.9999 20 
20 20 20.0001 20 20 20.0001 20 20 20.0001 
20 20 20.0001 20 20 19.9999 20 20 19.9999 
20 20 19.9999 20 20 19.9999 20.0001 20 20 
20.0001 20 20 20.0001 20 20 20.0001 20 20 
19.9999 20 20 19.9999 20 20 19.9999 20 20 
19.9999 20 20 20 20.0001 20 20 20.0001 20 
20 20.0001 20 20 20.0001 20 20 19.9999 20 
20 19.9999 20 20 19.9999 20 20 19.9999 20 
20 20 20.0001 20 20 20.0001 20 20 20.0001 
20 20 20.0001 20 20 19.9999 20 20 19.9999 
20 20 19.9999 20 20 19.9999 20 20 20 
20 20 20 20 20 20 20 20 20 
20 20 20 20 20 20 20 20 20 
20 20 20 20 20 20 20 20 20 
20 20 20 20 20 20 20 20 20 
20 20 20 20 20 20 20 20 20 
20 20 20 20 20 20 20 20 20 
20 20 20 20 20 20 20 20 20 
20 20 20 20 20 20 20.0001 20 20 
20.0001 20 20 20.0001 20 20 20.0001 20 20 
19.9999 20 20 19.9999 20 20 19.9999 20 20 
19.9999 20 20 20 20.0001 20 20 20.0001 20 
20 20.0001 20 20 20.0001 20 20 19.9999 20 
20 19.9999 20 20 19.9999 20 20 19.9999 20 
20 20 20.0001 20 20 20.0001 20 20 20.0001 
20 20 20.0001 20 20 19.9999 20 20 19.9999 
20 20 19.9999 20 20 19.9999 20.0001 20 20 
20.0001 20 20 19.9999 20 20 19.9999 20 20 
20 20.0001 20 20 20.0001 20 20 19.9999 20 
20 19.9999 20 20 20 20.0001 20 20 20.0001 
20 20 19.9999 20 20 19.9999 20 20.0001 20 
20 20.0001 20 20 19.9999 20 20 19.9999 20 
20.0001 20 20 20.0001 20 20 19.9999 20 20 
19.9999 20 20 20 20 20.0001 20 20 20.0001 
20 20 19.9999 20 20 19.9999 20 20 20.0001 
20 20 19.9999 20 20 20.0001 20 20 19.9999 
20 20 20.0001 20 20 19.9999 20 20 20.0001 
20 20 19.9999 20.0001 20 20 19.9999 20 20 
20.0001 20 20 19.9999 20 20 20.0001 20 20 
19.9999 20 20 20.0001 20 20 19.9999 20 20 
20 20.0001 20 20 19.9999 20 20 20.0001 20 
20 19.9999 20 20 20.0001 20 20 19.9999 20 
20 20.0001 20 20 19.9999 20 20 20 20.0001 
20 20 19.9999 20 20 20.0001 20 20 19.9999 
20 20 20.0001 20 20 19.9999 20 20 20.0001 
20 20 19.9999 20 20.0001 20 20 19.9999 20 
20 20.0001 20 20 19.9999 20 20 20.0001 20 
20 19.9999 20 20 20.0001 20 20 19.9999 20 
20.0001 20 20 19.9999 20 20 20.0001 20 20 
19.9999 20 20 20.0001 20 20 19.9999 20 20 
20.0001 20 20 19.9999 20 20 20.0019 20 20 
19.9981 20 20 20 20.0019 20 20 19.9981 20 
20 20 20.0019 20 20 19.9981 20.0014 20.0014 20 
20.0014 19.9986 20 19.9986 20.0014 20 19.9986 19.9986 20 
20.0014 20 20.0014 20.0014 20 19.9986 19.9986 20 20.0014 
19.9986 20 19.9986 20 20.0014 20.0014 20 20.0014 19.9986 
20 19.9986 20.0014 20 19.9986 19.9986 20.0011 20.0011 20.0011 
20.0011 20.0011 19.9989 20.0011 19.9989 20.0011 20.0011 19.9989 19.9989 
19.9989 20.0011 20.0011 19.9989 20.0011 19.9989 19.9989 19.9989 20.0011 
19.9989 19.9989 19.9989 20.0015 20.0009 20.0009 20.0015 20.0009 19.9991 
20.0015 19.9991 20.0009 20.0015 19.9991 19.9991 19.9985 20.0009 20.0009 
19.9985 20.0009 19.9991 19.9985 19.9991 20.0009 19.9985 19.9991 19.9991 
20.0009 20.0015 20.0009 19.9991 20.0015 20.0009 20.0009 20.0015 19.9991 
19.9991 20.0015 19.9991 20.0009 19.9985 20.0009 19.9991 19.9985 20.0009 
20.0009 19.9985 19.9991 19.9991 19.9985 19.9991 20.0009 20.0009 20.0015 
20.0009 19.9991 20.0015 19.9991 20.0009 20.0015 19.9991 19.9991 20.0015 
20.0009 20.0009 19.9985 20.0009 19.9991 19.9985 19.9991 20.0009 19.9985 
19.9991 19.9991 19.9985 20.0018 20.0006 20.0006 20.0018 20.0006 19.9994 
20.0018 19.9994 20.0006 20.0018 19.9994 19.9994 19.9982 20.0006 20.0006 
19.9982 20.0006 19.9994 19.9982 19.9994 20.0006 19.9982 19.9994 19.9994 
20.0006 20.0018 20.0006 19.9994 20.0018 20.0006 20.0006 20.0018 19.9994 
19.9994 20.0018 19.9994 20.0006 19.9982 20.0006 19.9994 19.9982 20.0006 
20.0006 19.9982 19.9994 19.9994 19.9982 19.9994 20.0006 20.0006 20.0018 
20.0006 19.9994 20.0018 19.9994 20.0006 20.0018 19.9994 19.9994 20.0018 
20.0006 20.0006 19.9982 20.0006 19.9994 19.9982 19.9994 20.0006 19.9982 
19.9994 19.9994 19.9982 20.0006 20.0013 20.0013 20.0006 20.0013 19.9987 
20.0006 19.9987 20.0013 20.0006 19.9987 19.9987 19.9994 20.0013 20.0013 
19.9994 20.0013 19.9987 19.9994 19.9987 20.0013 19.9994 19.9987 19.9987 
20.0013 20.0006 20.0013 19.9987 20.0006 20.0013 20.0013 20.0006 19.9987 
19.9987 20.0006 19.9987 20.0013 19.9994 20.0013 19.9987 19.9994 20.0013 
20.0013 19.9994 19.9987 19.9987 19.9994 19.9987 20.0013 20.0013 20.0006 
20.0013 19.9987 20.0006 19.9987 20.0013 20.0006 19.9987 19.9987 20.0006 
20.0013 20.0013 19.9994 20.0013 19.9987 19.9994 19.9987 20.0013 19.9994 
19.9987 19.9987 19.9994 20.0019 20.0003 20.0003 20.0019 20.0003 19.9997 
20.0019 19.9997 20.0003 20.0019 19.9997 19.9997 19.9981 20.0003 20.0003 
19.9981 20.0003 19.9997 19.9981 19.9997 20.0003 19.9981 19.9997 19.9997 
20.0003 20.0019 20.0003 19.9997 20.0019 20.0003 20.0003 20.0019 19.9997 
19.9997 20.0019 19.9997 20.0003 19.9981 20.0003 19.9997 19.9981 20.0003 
20.0003 19.9981 19.9997 19.9997 19.9981 19.9997 20.0003 20.0003 20.0019 
20.0003 19.9997 20.0019 19.9997 20.0003 20.0019 19.9997 19.9997 20.0019 
20.0003 20.0003 19.9981 20.0003 19.9997 19.9981 19.9997 20.0003 19.9981 
19.9997 19.9997 19.9981 20.0018 20.0007 20 20.0018 19.9993 20 
19.9982 20.0007 20 19.9982 19.9993 20 20 20.0018 20.0007 
20 20.0018 19.9993 20 19.9982 20.0007 20 19.9982 19.9993 
20.0007 20 20.0018 19.9993 20 20.0018 20.0007 20 19.9982 
19.9993 20 19.9982 20.0007 20.0018 20 19.9993 20.0018 20 
20.0007 19.9982 20 19.9993 19.9982 20 20.0018 20 20.0007 
20.0018 20 19.9993 19.9982 20 20.0007 19.9982 20 19.9993 
20 20.0007 20.0018 20 19.9993 20.0018 20 20.0007 19.9982 
20 19.9993 19.9982 20.0003 20.001 20.0016 20.0003 20.001 19.9984 
20.0003 19.999 20.0016 20.0003 19.999 19.9984 19.9997 20.001 20.0016 
19.9997 20.001 19.9984 19.9997 19.999 20.0016 19.9997 19.999 19.9984 
20.0016 20.0003 20.001 19.9984 20.0003 20.001 20.0016 20.0003 19.999 
19.9984 20.0003 19.999 20.0016 19.9997 20.001 19.9984 19.9997 20.001 
20.0016 19.9997 19.999 19.9984 19.9997 19.999 20.001 20.0016 20.0003 
20.001 19.9984 20.0003 19.999 20.0016 20.0003 19.999 19.9984 20.0003 
20.001 20.0016 19.9997 20.001 19.9984 19.9997 19.999 20.0016 19.9997 
19.999 19.9984 19.9997 20.001 20.0003 20.0016 20.001 20.0003 19.9984 
19.999 20.0003 20.0016 19.999 20.0003 19.9984 20.001 19.9997 20.0016 
20.001 19.9997 19.9984 19.999 19.9997 20.0016 19.999 19.9997 19.9984 
20.0003 20.0016 20.001 20.0003 19.9984 20.001 20.0003 20.0016 19.999 
20.0003 19.9984 19.999 19.9997 20.0016 20.001 19.9997 19.9984 20.001 
19.9997 20.0016 19.999 19.9997 19.9984 19.999 20.0016 20.001 20.0003 
19.9984 20.001 20.0003 20.0016 19.999 20.0003 19.9984 19.999 20.0003 
20.0016 20.001 19.9997 19.9984 20.001 19.9997 20.0016 19.999 19.9997 
19.9984 19.999 19.9997 20.0116 20 20 19.9884 20 20 
20 20.0116 20 20 19.9884 20 20 20 20.0116 
20 20 19.9884 20.0082 20.0082 20 20.0082 19.9918 20 
19.9918 20.0082 20 19.9918 19.9918 20 20.0082 20 20.0082 
20.0082 20 19.9918 19.9918 20 20.0082 19.9918 20 19.9918 
20 20.0082 20.0082 20 20.0082 19.9918 20 19.9918 20.0082 
20 19.9918 19.9918 20.0067 20.0067 20.0067 20.0067 20.0067 19.9933 
20.0067 19.9933 20.0067 20.0067 19.9933 19.9933 19.9933 20.0067 20.0067 
19.9933 20.0067 19.9933 19.9933 19.9933 20.0067 19.9933 19.9933 19.9933 
20.009 20.0051 20.0051 20.009 20.0051 19.9949 20.009 19.9949 20.0051 
20.009 19.9949 19.9949 19.991 20.0051 20.0051 19.991 20.0051 19.9949 
19.991 19.9949 20.0051 19.991 19.9949 19.9949 20.0051 20.009 20.0051 
19.9949 20.009 20.0051 20.0051 20.009 19.9949 19.9949 20.009 19.9949 
20.0051 19.991 20.0051 19.9949 19.991 20.0051 20.0051 19.991 19.9949 
19.9949 19.991 19.9949 20.0051 20.0051 20.009 20.0051 19.9949 20.009 
19.9949 20.0051 20.009 19.9949 19.9949 20.009 20.0051 20.0051 19.991 
20.0051 19.9949 19.991 19.9949 20.0051 19.991 19.9949 19.9949 19.991 
20.0105 20.0033 20.0033 20.0105 20.0033 19.9967 20.0105 19.9967 20.0033 
20.0105 19.9967 19.9967 19.9895 20.0033 20.0033 19.9895 20.0033 19.9967 
19.9895 19.9967 20.0033 19.9895 19.9967 19.9967 20.0033 20.0105 20.0033 
19.9967 20.0105 20.0033 20.0033 20.0105 19.9967 19.9967 20.0105 19.9967 
20.0033 19.9895 20.0033 19.9967 19.9895 20.0033 20.0033 19.9895 19.9967 
19.9967 19.9895 19.9967 20.0033 20.0033 20.0105 20.0033 19.9967 20.0105 
19.9967 20.0033 20.0105 19.9967 19.9967 20.0105 20.0033 20.0033 19.9895 
20.0033 19.9967 19.9895 19.9967 20.0033 19.9895 19.9967 19.9967 19.9895 
20.0036 20.0078 20.0078 20.0036 20.0078 19.9922 20.0036 19.9922 20.0078 
20.0036 19.9922 19.9922 19.9964 20.0078 20.0078 19.9964 20.0078 19.9922 
19.9964 19.9922 20.0078 19.9964 19.9922 19.9922 20.0078 20.0036 20.0078 
19.9922 20.0036 20.0078 20.0078 20.0036 19.9922 19.9922 20.0036 19.9922 
20.0078 19.9964 20.0078 19.9922 19.9964 20.0078 20.0078 19.9964 19.9922 
19.9922 19.9964 19.9922 20.0078 20.0078 20.0036 20.0078 19.9922 20.0036 
19.9922 20.0078 20.0036 19.9922 19.9922 20.0036 20.0078 20.0078 19.9964 
20.0078 19.9922 19.9964 19.9922 20.0078 19.9964 19.9922 19.9922 19.9964 
20.0114 20.0015 20.0015 20.0114 20.0015 19.9985 20.0114 19.9985 20.0015 
20.0114 19.9985 19.9985 19.9886 20.0015 20.0015 19.9886 20.0015 19.9985 
19.9886 19.9985 20.0015 19.9886 19.9985 19.9985 20.0015 20.0114 20.0015 
19.9985 20.0114 20.0015 20.0015 20.0114 19.9985 19.9985 20.0114 19.9985 
20.0015 19.9886 20.0015 19.9985 19.9886 20.0015 20.0015 19.9886 19.9985 
19.9985 19.9886 19.9985 20.0015 20.0015 20.0114 20.0015 19.9985 20.0114 
19.9985 20.0015 20.0114 19.9985 19.9985 20.0114 20.0015 20.0015 19.9886 
20.0015 19.9985 19.9886 19.9985 20.0015 19.9886 19.9985 19.9985 19.9886 
20.0108 20.004 20 20.0108 19.996 20 19.9892 20.004 20 
[...]
CELL_DATA 21806
POINT_DATA 3880
SCALARS scalars float
LOOKUP_TABLE default
8.96341e-11 8.96341e-11 8.96341e-11 8.96341e-11 8.96341e-11 8.96341e-11 8.96341e-11 8.96341e-11 8.96341e-11 
8.96341e-11 8.96341e-11 8.96341e-11 8.96341e-11 8.96341e-11 8.96341e-11 8.96341e-11 8.96341e-11 8.96341e-11 
8.96341e-11 8.96341e-11 8.96341e-11 8.96341e-11 8.96341e-11 8.96341e-11 8.96341e-11 8.96341e-11 8.96341e-11 
8.96341e-11 8.96341e-11 8.96341e-11 8.96341e-11 8.96341e-11 8.96341e-11 8.96341e-11 8.96341e-11 8.96341e-11 
8.96341e-11 8.96341e-11 8.96341e-11 8.96341e-11 8.96341e-11 8.96341e-11 8.96341e-11 8.96341e-11 8.96341e-11 
8.96341e-11 8.96341e-11 8.96341e-11 8.96341e-11 8.96341e-11 8.96341e-11 8.96341e-11 8.96341e-11 8.96341e-11 
8.96341e-11 8.96341e-11 8.96341e-11 8.96341e-11 8.96341e-11 8.96341e-11 8.96341e-11 8.96341e-11 8.96341e-11 
8.96341e-11 8.96341e-11 8.96341e-11 8.96341e-11 8.96341e-11 8.96341e-11 8.96341e-11 8.96341e-11 8.96341e-11 
8.96341e-11 8.96341e-11 8.96341e-11 8.96341e-11 8.96341e-11 8.96341e-11 8.96341e-11 8.96341e-11 8.96341e-11 
8.96341e-11 8.96341e-11 8.96341e-11 8.96341e-11 8.96341e-11 8.96341e-11 8.96341e-11 8.96341e-11 8.96341e-11 
8.96341e-11 8.96341e-11 8.96341e-11 8.96341e-11 8.96341e-11 8.96341e-11 8.96341e-11 8.96341e-11 8.96341e-11 
8.96341e-11 8.96341e-11 8.96341e-11 8.96341e-11 8.96341e-11 8.96341e-11 8.96341e-11 8.96341e-11 8.96341e-11 
8.96341e-11 8.96341e-11 8.96341e-11 8.96341e-11 8.96341e-11 8.96341e-11 8.96341e-11 8.96341e-11 8.96341e-11 
8.96341e-11 8.96341e-11 8.96341e-11 8.96341e-11 8.96341e-11 8.96341e-11 8.96341e-11 8.96341e-11 8.96341e-11 
8.96341e-11 8.96341e-11 8.96341e-11 8.96341e-11 8.96341e-11 8.96341e-11 8.96341e-11 8.96341e-11 8.96341e-11 
8.96341e-11 8.96341e-11 8.96341e-11 8.96341e-11 8.96341e-11 8.96341e-11 8.96341e-11 8.96341e-11 8.96341e-11 
8.96341e-11 8.96341e-11 8.96341e-11 8.96341e-11 8.96341e-11 8.96341e-11 8.96341e-11 8.96341e-11 8.96341e-11 
8.96341e-11 8.96341e-11 8.96341e-11 8.96341e-11 8.96341e-11 8.96341e-11 8.96341e-11 8.96341e-11 8.96341e-11 
8.96341e-11 8.96341e-11 8.96341e-11 8.96341e-11 8.96341e-11 8.96341e-11 8.96341e-11 8.96341e-11 8.96341e-11 
8.96341e-11 8.96341e-11 8.96341e-11 8.96341e-11 8.96341e-11 8.96341e-11 8.96341e-11 8.96341e-11 8.96341e-11 
8.96341e-11 8.96341e-11 8.96341e-11 8.96341e-11 8.96341e-11 8.96341e-11 8.96341e-11 8.96341e-11 8.96341e-11 
8.96341e-11 8.96341e-11 8.96341e-11 8.96341e-11 8.96341e-11 6.77435e-08 6.77435e-08 6.77435e-08 6.77435e-08 
6.77435e-08 6.77435e-08 6.77435e-08 6.77435e-08 6.77435e-08 6.77435e-08 6.77435e-08 6.77435e-08 6.77435e-08 
6.77435e-08 6.77435e-08 6.77435e-08 6.77435e-08 6.77435e-08 6.77435e-08 6.77435e-08 6.77435e-08 6.77435e-08 
6.77435e-08 6.77435e-08 6.77435e-08 6.77435e-08 6.77435e-08 6.77435e-08 6.77435e-08 6.77435e-08 6.77435e-08 
6.77435e-08 6.77435e-08 6.77435e-08 6.77435e-08 6.77435e-08 6.77435e-08 6.77435e-08 6.77435e-08 6.77435e-08 
6.77435e-08 6.77435e-08 6.77435e-08 6.77435e-08 6.77435e-08 6.77435e-08 6.77435e-08 6.77435e-08 6.77435e-08 
6.77435e-08 6.77435e-08 6.77435e-08 6.77435e-08 6.77435e-08 6.77435e-08 6.77435e-08 6.77435e-08 6.77435e-08 
6.77435e-08 6.77435e-08 6.77435e-08 6.77435e-08 6.77435e-08 6.77435e-08 6.77435e-08 6.77435e-08 6.77435e-08 
6.77435e-08 6.77435e-08 6.77435e-08 6.77435e-08 6.77435e-08 6.77435e-08 6.77435e-08 6.77435e-08 6.77435e-08 
6.77435e-08 6.77435e-08 6.77435e-08 6.77435e-08 6.77435e-08 6.77435e-08 6.77435e-08 6.77435e-08 6.77435e-08 
6.77435e-08 6.77435e-08 6.77435e-08 6.77435e-08 6.77435e-08 6.77435e-08 6.77435e-08 6.77435e-08 6.77435e-08 
6.77435e-08 6.77435e-08 6.77435e-08 6.77435e-08 6.77435e-08 6.77435e-08 6.77435e-08 6.77435e-08 6.77435e-08 
6.77435e-08 6.77435e-08 6.77435e-08 6.77435e-08 6.77435e-08 6.77435e-08 6.77435e-08 6.77435e-08 6.77435e-08 
6.77435e-08 6.77435e-08 6.77435e-08 6.77435e-08 6.77435e-08 6.77435e-08 6.77435e-08 6.77435e-08 6.77435e-08 
6.77435e-08 6.77435e-08 6.77435e-08 6.77435e-08 6.77435e-08 6.77435e-08 6.77435e-08 6.77435e-08 6.77435e-08 
6.77435e-08 6.77435e-08 6.77435e-08 6.77435e-08 6.77435e-08 6.77435e-08 6.77435e-08 6.77435e-08 6.77435e-08 
6.77435e-08 6.77435e-08 6.77435e-08 6.77435e-08 6.77435e-08 6.77435e-08 6.77435e-08 6.77435e-08 6.77435e-08 
6.77435e-08 6.77435e-08 6.77435e-08 6.77435e-08 6.77435e-08 6.77435e-08 6.77435e-08 6.77435e-08 6.77435e-08 
6.77435e-08 6.77435e-08 6.77435e-08 6.77435e-08 6.77435e-08 6.77435e-08 6.77435e-08 6.77435e-08 6.77435e-08 
6.77435e-08 6.77435e-08 6.77435e-08 6.77435e-08 6.77435e-08 6.77435e-08 6.77435e-08 6.77435e-08 6.77435e-08 
6.77435e-08 6.77435e-08 6.77435e-08 6.77435e-08 6.77435e-08 6.77435e-08 6.77435e-08 6.77435e-08 6.77435e-08 
6.77435e-08 6.77435e-08 6.77435e-08 6.77435e-08 6.77435e-08 6.77435e-08 6.77435e-08 6.77435e-08 6.77435e-08 
6.77435e-08 2.38799e-06 2.38799e-06 2.38799e-06 2.38799e-06 2.38799e-06 2.38799e-06 2.38799e-06 2.38799e-06 
2.38799e-06 2.38799e-06 2.38799e-06 2.38799e-06 2.38799e-06 2.38799e-06 2.38799e-06 2.38799e-06 2.38799e-06 
2.38799e-06 2.38799e-06 2.38799e-06 2.38799e-06 2.38799e-06 2.38799e-06 2.38799e-06 2.38799e-06 2.38799e-06 
2.38799e-06 2.38799e-06 2.38799e-06 2.38799e-06 2.38799e-06 2.38799e-06 2.38799e-06 2.38799e-06 2.38799e-06 
2.38799e-06 2.38799e-06 2.38799e-06 2.38799e-06 2.38799e-06 2.38799e-06 2.38799e-06 2.38799e-06 2.38799e-06 
2.38799e-06 2.38799e-06 2.38799e-06 2.38799e-06 2.38799e-06 2.38799e-06 2.38799e-06 2.38799e-06 2.38799e-06 
2.38799e-06 2.38799e-06 2.38799e-06 2.38799e-06 2.38799e-06 2.38799e-06 2.38799e-06 2.38799e-06 2.38799e-06 
2.38799e-06 2.38799e-06 2.38799e-06 2.38799e-06 2.38799e-06 2.38799e-06 2.38799e-06 2.38799e-06 2.38799e-06 
2.38799e-06 2.38799e-06 2.38799e-06 2.38799e-06 2.38799e-06 2.38799e-06 2.38799e-06 2.38799e-06 2.38799e-06 
2.38799e-06 2.38799e-06 2.38799e-06 2.38799e-06 2.38799e-06 2.38799e-06 2.38799e-06 2.38799e-06 2.38799e-06 
2.38799e-06 2.38799e-06 2.38799e-06 2.38799e-06 2.38799e-06 2.38799e-06 2.38799e-06 2.38799e-06 2.38799e-06 
2.38799e-06 2.38799e-06 2.38799e-06 2.38799e-06 2.38799e-06 2.38799e-06 2.38799e-06 2.38799e-06 2.38799e-06 
2.38799e-06 2.38799e-06 2.38799e-06 2.38799e-06 2.38799e-06 2.38799e-06 2.38799e-06 2.38799e-06 2.38799e-06 
2.38799e-06 2.38799e-06 2.38799e-06 2.38799e-06 2.38799e-06 2.38799e-06 2.38799e-06 2.38799e-06 2.38799e-06 
2.38799e-06 2.38799e-06 2.38799e-06 2.38799e-06 2.38799e-06 2.38799e-06 2.38799e-06 2.38799e-06 2.38799e-06 
2.38799e-06 2.38799e-06 2.38799e-06 2.38799e-06 2.38799e-06 2.38799e-06 2.38799e-06 2.38799e-06 2.38799e-06 
2.38799e-06 2.38799e-06 2.38799e-06 2.38799e-06 2.38799e-06 2.38799e-06 2.38799e-06 2.38799e-06 2.38799e-06 
2.38799e-06 2.38799e-06 2.38799e-06 2.38799e-06 2.38799e-06 2.38799e-06 2.38799e-06 2.38799e-06 2.38799e-06 
2.38799e-06 2.38799e-06 2.38799e-06 2.38799e-06 2.38799e-06 2.38799e-06 2.38799e-06 2.38799e-06 2.38799e-06 
2.38799e-06 2.38799e-06 2.38799e-06 2.38799e-06 2.38799e-06 2.38799e-06 2.38799e-06 2.38799e-06 2.38799e-06 
2.38799e-06 2.38799e-06 2.38799e-06 2.38799e-06 2.38799e-06 2.38799e-06 2.38799e-06 2.38799e-06 2.38799e-06 
2.38799e-06 2.38799e-06 2.38799e-06 2.38799e-06 2.38799e-06 2.38799e-06 2.72508e-05 2.72508e-05 2.72508e-05 
2.72508e-05 2.72508e-05 2.72508e-05 2.72508e-05 2.72508e-05 2.72508e-05 2.72508e-05 2.72508e-05 2.72508e-05 
2.72508e-05 2.72508e-05 2.72508e-05 2.72508e-05 2.72508e-05 2.72508e-05 2.72508e-05 2.72508e-05 2.72508e-05 
2.72508e-05 2.72508e-05 2.72508e-05 2.72508e-05 2.72508e-05 2.72508e-05 2.72508e-05 2.72508e-05 2.72508e-05 
2.72508e-05 2.72508e-05 2.72508e-05 2.72508e-05 2.72508e-05 2.72508e-05 2.72508e-05 2.72508e-05 2.72508e-05 
2.72508e-05 2.72508e-05 2.72508e-05 2.72508e-05 2.72508e-05 2.72508e-05 2.72508e-05 2.72508e-05 2.72508e-05 
2.72508e-05 2.72508e-05 2.72508e-05 2.72508e-05 2.72508e-05 2.72508e-05 2.72508e-05 2.72508e-05 2.72508e-05 
2.72508e-05 2.72508e-05 2.72508e-05 2.72508e-05 2.72508e-05 2.72508e-05 2.72508e-05 2.72508e-05 2.72508e-05 
2.72508e-05 2.72508e-05 2.72508e-05 2.72508e-05 2.72508e-05 2.72508e-05 2.72508e-05 2.72508e-05 2.72508e-05 
2.72508e-05 2.72508e-05 2.72508e-05 2.72508e-05 2.72508e-05 2.72508e-05 2.72508e-05 2.72508e-05 2.72508e-05 
2.72508e-05 2.72508e-05 2.72508e-05 2.72508e-05 2.72508e-05 2.72508e-05 2.72508e-05 2.72508e-05 2.72508e-05 
2.72508e-05 2.72508e-05 2.72508e-05 2.72508e-05 2.72508e-05 2.72508e-05 2.72508e-05 2.72508e-05 2.72508e-05 
2.72508e-05 2.72508e-05 2.72508e-05 2.72508e-05 2.72508e-05 2.72508e-05 2.72508e-05 2.72508e-05 2.72508e-05 
2.72508e-05 2.72508e-05 2.72508e-05 2.72508e-05 2.72508e-05 2.72508e-05 2.72508e-05 2.72508e-05 2.72508e-05 
2.72508e-05 2.72508e-05 2.72508e-05 2.72508e-05 2.72508e-05 2.72508e-05 2.72508e-05 2.72508e-05 2.72508e-05 
2.72508e-05 2.72508e-05 2.72508e-05 2.72508e-05 2.72508e-05 2.72508e-05 2.72508e-05 2.72508e-05 2.72508e-05 
2.72508e-05 2.72508e-05 2.72508e-05 2.72508e-05 2.72508e-05 2.72508e-05 2.72508e-05 2.72508e-05 2.72508e-05 
2.72508e-05 2.72508e-05 2.72508e-05 2.72508e-05 2.72508e-05 2.72508e-05 2.72508e-05 2.72508e-05 2.72508e-05 
2.72508e-05 2.72508e-05 2.72508e-05 2.72508e-05 2.72508e-05 2.72508e-05 2.72508e-05 2.72508e-05 2.72508e-05 
2.72508e-05 2.72508e-05 2.72508e-05 2.72508e-05 2.72508e-05 2.72508e-05 2.72508e-05 2.72508e-05 2.72508e-05 
2.72508e-05 2.72508e-05 2.72508e-05 2.72508e-05 2.72508e-05 2.72508e-05 2.72508e-05 2.72508e-05 2.72508e-05 
2.72508e-05 2.72508e-05 2.72508e-05 2.72508e-05 2.72508e-05 2.72508e-05 2.72508e-05 2.72508e-05 2.72508e-05 
2.72508e-05 2.72508e-05 0.000178419 0.000178419 0.000178419 0.000178419 0.000178419 0.000178419 0.000178419 
0.000178419 0.000178419 0.000178419 0.000178419 0.000178419 0.000178419 0.000178419 0.000178419 0.000178419 
0.000178419 0.000178419 0.000178419 0.000178419 0.000178419 0.000178419 0.000178419 0.000178419 0.000178419 
0.000178419 0.000178419 0.000178419 0.000178419 0.000178419 0.000178419 0.000178419 0.000178419 0.000178419 
0.000178419 0.000178419 0.000178419 0.000178419 0.000178419 0.000178419 0.000178419 0.000178419 0.000178419 
0.000178419 0.000178419 0.000178419 0.000178419 0.000178419 0.000178419 0.000178419 0.000178419 0.000178419 
0.000178419 0.000178419 0.000178419 0.000178419 0.000178419 0.000178419 0.000178419 0.000178419 0.000178419 
0.000178419 0.000178419 0.000178419 0.000178419 0.000178419 0.000178419 0.000178419 0.000178419 0.000178419 
0.000178419 0.000178419 0.000178419 0.000178419 0.000178419 0.000178419 0.000178419 0.000178419 0.000178419 
0.000178419 0.000178419 0.000178419 0.000178419 0.000178419 0.000178419 0.000178419 0.000178419 0.000178419 
0.000178419 0.000178419 0.000178419 0.000178419 0.000178419 0.000178419 0.000178419 0.000178419 0.000178419 
0.000178419 0.000178419 0.000178419 0.000178419 0.000178419 0.000178419 0.000178419 0.000178419 0.000178419 
0.000178419 0.000178419 0.000178419 0.000178419 0.000178419 0.000178419 0.000178419 0.000178419 0.000178419 
0.000178419 0.000178419 0.000178419 0.000178419 0.000178419 0.000178419 0.000178419 0.000178419 0.000178419 
0.000178419 0.000178419 0.000178419 0.000178419 0.000178419 0.000178419 0.000178419 0.000178419 0.000178419 
0.000178419 0.000178419 0.000178419 0.000178419 0.000178419 0.000178419 0.000178419 0.000178419 0.000178419 
0.000178419 0.000178419 0.000178419 0.000178419 0.000178419 0.000178419 0.000178419 0.000178419 0.000178419 
0.000178419 0.000178419 0.000178419 0.000178419 0.000178419 0.000178419 0.000178419 0.000178419 0.000178419 
0.000178419 0.000178419 0.000178419 0.000178419 0.000178419 0.000178419 0.000178419 0.000178419 0.000178419 
0.000178419 0.000178419 0.000178419 0.000178419 0.000178419 0.000178419 0.000178419 0.000178419 0.000178419 
0.000178419 0.000178419 0.000178419 0.000178419 0.000178419 0.000178419 0.000178419 0.000178419 0.000178419 
0.000178419 0.000178419 0.000178419 0.000178419 0.000178419 0.000178419 0.000178419 0.000912136 0.000912136 
0.000912136 0.000912136 0.000912136 0.000912136 0.000912136 0.000912136 0.000912136 0.000912136 0.000912136 
0.000912136 0.000912136 0.000912136 0.000912136 0.000912136 0.000912136 0.000912136 0.000912136 0.000912136 
0.000912136 0.000912136 0.000912136 0.000912136 0.000912136 0.000912136 0.000912136 0.000912136 0.000912136 
0.000912136 0.000912136 0.000912136 0.000912136 0.000912136 0.000912136 0.000912136 0.000912136 0.000912136 
0.000912136 0.000912136 0.000912136 0.000912136 0.000912136 0.000912136 0.000912136 0.000912136 0.000912136 
0.000912136 0.000912136 0.000912136 0.000912136 0.000912136 0.000912136 0.000912136 0.000912136 0.000912136 
0.000912136 0.000912136 0.000912136 0.000912136 0.000912136 0.000912136 0.000912136 0.000912136 0.000912136 
0.000912136 0.000912136 0.000912136 0.000912136 0.000912136 0.000912136 0.000912136 0.000912136 0.000912136 
0.000912136 0.000912136 0.000912136 0.000912136 0.000912136 0.000912136 0.000912136 0.000912136 0.000912136 
0.000912136 0.000912136 0.000912136 0.000912136 0.000912136 0.000912136 0.000912136 0.000912136 0.000912136 
0.000912136 0.000912136 0.000912136 0.000912136 0.000912136 0.000912136 0.000912136 0.000912136 0.000912136 
0.000912136 0.000912136 0.000912136 0.000912136 0.000912136 0.000912136 0.000912136 0.000912136 0.000912136 
0.000912136 0.000912136 0.000912136 0.000912136 0.000912136 0.000912136 0.000912136 0.000912136 0.000912136 
0.000912136 0.000912136 0.000912136 0.000912136 0.000912136 0.000912136 0.000912136 0.000912136 0.000912136 
0.000912136 0.000912136 0.000912136 0.000912136 0.000912136 0.000912136 0.000912136 0.000912136 0.000912136 
0.000912136 0.000912136 0.000912136 0.000912136 0.000912136 0.000912136 0.000912136 0.000912136 0.000912136 
0.000912136 0.000912136 0.000912136 0.000912136 0.000912136 0.000912136 0.000912136 0.000912136 0.000912136 
0.000912136 0.000912136 0.000912136 0.000912136 0.000912136 0.000912136 0.000912136 0.000912136 0.000912136 
0.000912136 0.000912136 0.000912136 0.000912136 0.000912136 0.000912136 0.000912136 0.000912136 0.000912136 
0.000912136 0.000912136 0.000912136 0.000912136 0.000912136 0.000912136 0.000912136 0.000912136 0.000912136 
0.000912136 0.000912136 0.000912136 0.000912136 0.000912136 0.000912136 0.000912136 0.000912136 0.000912136 
0.000912136 0.000912136 0.000912136 0.00427023 0.00427023 0.00427023 0.00427023 0.00427023 0.00427023 
0.00427023 0.00427023 0.00427023 0.00427023 0.00427023 0.00427023 0.00427023 0.00427023 0.00427023 
0.00427023 0.00427023 0.00427023 0.00427023 0.00427023 0.00427023 0.00427023 0.00427023 0.00427023 
0.00427023 0.00427023 0.00427023 0.00427023 0.00427023 0.00427023 0.00427023 0.00427023 0.00427023 
0.00427023 0.00427023 0.00427023 0.00427023 0.00427023 0.00427023 0.00427023 0.00427023 0.00427023 
0.00427023 0.00427023 0.00427023 0.00427023 0.00427023 0.00427023 0.00427023 0.00427023 0.00427023 
0.00427023 0.00427023 0.00427023 0.00427023 0.00427023 0.00427023 0.00427023 0.00427023 0.00427023 
0.00427023 0.00427023 0.00427023 0.00427023 0.00427023 0.00427023 0.00427023 0.00427023 0.00427023 
0.00427023 0.00427023 0.00427023 0.00427023 0.00427023 0.00427023 0.00427023 0.00427023 0.00427023 
0.00427023 0.00427023 0.00427023 0.00427023 0.00427023 0.00427023 0.00427023 0.00427023 0.00427023 
0.00427023 0.00427023 0.00427023 0.00427023 0.00427023 0.00427023 0.00427023 0.00427023 0.00427023 
0.00427023 0.00427023 0.00427023 0.00427023 0.00427023 0.00427023 0.00427023 0.00427023 0.00427023 
0.00427023 0.00427023 0.00427023 0.00427023 0.00427023 0.00427023 0.00427023 0.00427023 0.00427023 
0.00427023 0.00427023 0.00427023 0.00427023 0.00427023 0.00427023 0.00427023 0.00427023 0.00427023 
0.00427023 0.00427023 0.00427023 0.00427023 0.00427023 0.00427023 0.00427023 0.00427023 0.00427023 
0.00427023 0.00427023 0.00427023 0.00427023 0.00427023 0.00427023 0.00427023 0.00427023 0.00427023 
0.00427023 0.00427023 0.00427023 0.00427023 0.00427023 0.00427023 0.00427023 0.00427023 0.00427023 
0.00427023 0.00427023 0.00427023 0.00427023 0.00427023 0.00427023 0.00427023 0.00427023 0.00427023 
0.00427023 0.00427023 0.00427023 0.00427023 0.00427023 0.00427023 0.00427023 0.00427023 0.00427023 
0.00427023 0.00427023 0.00427023 0.00427023 0.00427023 0.00427023 0.00427023 0.00427023 0.00427023 
0.00427023 0.00427023 0.00427023 0.00427023 0.00427023 0.00427023 0.00427023 0.00427023 0.00427023 
0.00427023 0.00427023 0.00427023 0.00427023 0.00427023 0.00427023 0.00427023 0.00427023 0.0169345 
0.0169345 0.0169345 0.0169345 0.0169345 0.0169345 0.0169345 0.0169345 0.0169345 0.0169345 
0.0169345 0.0169345 0.0169345 0.0169345 0.0169345 0.0169345 0.0169345 0.0169345 0.0169345 
0.0169345 0.0169345 0.0169345 0.0169345 0.0169345 0.0169345 0.0169345 0.0169345 0.0169345 
0.0169345 0.0169345 0.0169345 0.0169345 0.0169345 0.0169345 0.0169345 0.0169345 0.0169345 
0.0169345 0.0169345 0.0169345 0.0169345 0.0169345 0.0169345 0.0169345 0.0169345 0.0169345 
0.0169345 0.0169345 0.0169345 0.0169345 0.0169345 0.0169345 0.0169345 0.0169345 0.0169345 
0.0169345 0.0169345 0.0169345 0.0169345 0.0169345 0.0169345 0.0169345 0.0169345 0.0169345 
0.0169345 0.0169345 0.0169345 0.0169345 0.0169345 0.0169345 0.0169345 0.0169345 0.0169345 
0.0169345 0.0169345 0.0169345 0.0169345 0.0169345 0.0169345 0.0169345 0.0169345 0.0169345 
0.0169345 0.0169345 0.0169345 0.0169345 0.0169345 0.0169345 0.0169345 0.0169345 0.0169345 
0.0169345 0.0169345 0.0169345 0.0169345 0.0169345 0.0169345 0.0169345 0.0169345 0.0169345 
0.0169345 0.0169345 0.0169345 0.0169345 0.0169345 0.0169345 0.0169345 0.0169345 0.0169345 
0.0169345 0.0169345 0.0169345 0.0169345 0.0169345 0.0169345 0.0169345 0.0169345 0.0169345 
0.0169345 0.0169345 0.0169345 0.0169345 0.0169345 0.0169345 0.0169345 0.0169345 0.0169345 
0.0169345 0.0169345 0.0169345 0.0169345 0.0169345 0.0169345 0.0169345 0.0169345 0.0169345 
0.0169345 0.0169345 0.0169345 0.0169345 0.0169345 0.0169345 0.0169345 0.0169345 0.0169345 
0.0169345 0.0169345 0.0169345 0.0169345 0.0169345 0.0169345 0.0169345 0.0169345 0.0169345 
0.0169345 0.0169345 0.0169345 0.0169345 0.0169345 0.0169345 0.0169345 0.0169345 0.0169345 
0.0169345 0.0169345 0.0169345 0.0169345 0.0169345 0.0169345 0.0169345 0.0169345 0.0169345 
0.0169345 0.0169345 0.0169345 0.0169345 0.0169345 0.0169345 0.0169345 0.0169345 0.0169345 
0.0169345 0.0169345 0.0169345 0.0169345 0.0169345 0.0169345 0.0169345 0.0169345 0.0169345 
0.0169345 0.0169345 0.0169345 0.0169345 0.0454248 0.0454248 0.0454248 0.0454248 0.0454248 
0.0454248 0.0454248 0.0454248 0.0454248 0.0454248 0.0454248 0.0454248 0.0454248 0.0454248 
0.0454248 0.0454248 0.0454248 0.0454248 0.0454248 0.0454248 0.0454248 0.0454248 0.0454248 
0.0454248 0.0454248 0.0454248 0.0454248 0.0454248 0.0454248 0.0454248 0.0454248 0.0454248 
0.0454248 0.0454248 0.0454248 0.0454248 0.0454248 0.0454248 0.0454248 0.0454248 0.0454248 
0.0454248 0.0454248 0.0454248 0.0454248 0.0454248 0.0454248 0.0454248 0.0454248 0.0454248 
0.0454248 0.0454248 0.0454248 0.0454248 0.0454248 0.0454248 0.0454248 0.0454248 0.0454248 
0.0454248 0.0454248 0.0454248 0.0454248 0.0454248 0.0454248 0.0454248 0.0454248 0.0454248 
0.0454248 0.0454248 0.0454248 0.0454248 0.0454248 0.0454248 0.0454248 0.0454248 0.0454248 
0.0454248 0.0454248 0.0454248 0.0454248 0.0454248 0.0454248 0.0454248 0.0454248 0.0454248 
0.0454248 0.0454248 0.0454248 0.0454248 0.0454248 0.0454248 0.0454248 0.0454248 0.0454248 
0.0454248 0.0454248 0.0454248 0.0454248 0.0454248 0.0454248 0.0454248 0.0454248 0.0454248 
0.0454248 0.0454248 0.0454248 0.0454248 0.0454248 0.0454248 0.0454248 0.0454248 0.0454248 
0.0454248 0.0454248 0.0454248 0.0454248 0.0454248 0.0454248 0.0454248 0.0454248 0.0454248 
0.0454248 0.0454248 0.0454248 0.0454248 0.0454248 0.0454248 0.0454248 0.0454248 0.0454248 
0.0454248 0.0454248 0.0454248 0.0454248 0.0454248 0.0454248 0.0454248 0.0454248 0.0454248 
0.0454248 0.0454248 0.0454248 0.0454248 0.0454248 0.0454248 0.0454248 0.0454248 0.0454248 
0.0454248 0.0454248 0.0454248 0.0454248 0.0454248 0.0454248 0.0454248 0.0454248 0.0454248 
0.0454248 0.0454248 0.0454248 0.0454248 0.0454248 0.0454248 0.0454248 0.0454248 0.0454248 