# vtk DataFile Version 3.0
vtk output
ASCII
DATASET UNSTRUCTURED_GRID
POINTS 7760 float
19.7976 20 20 19.7974 20 20 19.7975 20.0001 20 
19.7975 19.9999 20 19.7975 20 20.0001 19.7975 20 19.9999 
19.7975 20 20 19.7975 20 20 19.7974 20 20 
19.7974 20 20 19.7975 20 20 19.7975 20 20 
19.7974 20 20 19.7974 20 20 19.7975 20 20 
19.7975 20 20 19.7975 20 20 19.7975 20 20 
19.7975 20 20 19.7975 20 20 19.7975 20 20 
19.7975 20 20 19.7975 20 20 19.7975 20 20 
19.7975 20 20 19.7975 20 20 19.7976 20 20 
19.7976 20 20 19.7976 20 20 19.7976 20 20 
19.7974 20 20 19.7974 20 20 19.7974 20 20 
19.7974 20 20 19.7975 20.0001 20 19.7975 20.0001 20 
19.7975 20.0001 20 19.7975 20.0001 20 19.7975 19.9999 20 
19.7975 19.9999 20 19.7975 19.9999 20 19.7975 19.9999 20 
19.7975 20 20.0001 19.7975 20 20.0001 19.7975 20 20.0001 
19.7975 20 20.0001 19.7975 20 19.9999 19.7975 20 19.9999 
19.7975 20 19.9999 19.7975 20 19.9999 19.7976 20 20 
19.7976 20 20 19.7976 20 20 19.7976 20 20 
19.7974 20 20 19.7974 20 20 19.7974 20 20 
19.7974 20 20 19.7975 20.0001 20 19.7975 20.0001 20 
19.7975 20.0001 20 19.7975 20.0001 20 19.7975 19.9999 20 
19.7975 19.9999 20 19.7975 19.9999 20 19.7975 19.9999 20 
19.7975 20 20.0001 19.7975 20 20.0001 19.7975 20 20.0001 
19.7975 20 20.0001 19.7975 20 19.9999 19.7975 20 19.9999 
19.7975 20 19.9999 19.7975 20 19.9999 19.7975 20 20 
19.7975 20 20 19.7975 20 20 19.7975 20 20 
19.7975 20 20 19.7975 20 20 19.7975 20 20 
19.7975 20 20 19.7975 20 20 19.7974 20 20 
19.7975 20 20 19.7974 20 20 19.7975 20 20 
19.7974 20 20 19.7975 20 20 19.7974 20 20 
19.7975 20 20 19.7975 20 20 19.7974 20 20 
19.7974 20 20 19.7975 20 20 19.7975 20 20 
19.7974 20 20 19.7974 20 20 19.7976 20 20 
19.7976 20 20 19.7976 20 20 19.7976 20 20 
19.7974 20 20 19.7974 20 20 19.7974 20 20 
19.7974 20 20 19.7975 20.0001 20 19.7975 20.0001 20 
19.7975 20.0001 20 19.7975 20.0001 20 19.7975 19.9999 20 
19.7975 19.9999 20 19.7975 19.9999 20 19.7975 19.9999 20 
19.7975 20 20.0001 19.7975 20 20.0001 19.7975 20 20.0001 
19.7975 20 20.0001 19.7975 20 19.9999 19.7975 20 19.9999 
19.7975 20 19.9999 19.7975 20 19.9999 19.7976 20 20 
19.7976 20 20 19.7974 20 20 19.7974 20 20 
19.7975 20.0001 20 19.7975 20.0001 20 19.7975 19.9999 20 
19.7975 19.9999 20 19.7975 20 20.0001 19.7975 20 20.0001 
19.7975 20 19.9999 19.7975 20 19.9999 19.7975 20.0001 20 
19.7975 20.0001 20 19.7975 19.9999 20 19.7975 19.9999 20 
19.7976 20 20 19.7976 20 20 19.7974 20 20 
19.7974 20 20 19.7975 20 20.0001 19.7975 20 20.0001 
19.7975 20 19.9999 19.7975 20 19.9999 19.7975 20 20.0001 
19.7975 20 19.9999 19.7975 20 20.0001 19.7975 20 19.9999 
19.7975 20 20.0001 19.7975 20 19.9999 19.7975 20 20.0001 
19.7975 20 19.9999 19.7976 20 20 19.7974 20 20 
19.7976 20 20 19.7974 20 20 19.7976 20 20 
19.7974 20 20 19.7976 20 20 19.7974 20 20 
19.7975 20.0001 20 19.7975 19.9999 20 19.7975 20.0001 20 
19.7975 19.9999 20 19.7975 20.0001 20 19.7975 19.9999 20 
19.7975 20.0001 20 19.7975 19.9999 20 19.7975 20 20.0001 
19.7975 20 19.9999 19.7975 20 20.0001 19.7975 20 19.9999 
19.7975 20 20.0001 19.7975 20 19.9999 19.7975 20 20.0001 
19.7975 20 19.9999 19.7975 20.0001 20 19.7975 19.9999 20 
19.7975 20.0001 20 19.7975 19.9999 20 19.7975 20.0001 20 
19.7975 19.9999 20 19.7975 20.0001 20 19.7975 19.9999 20 
19.7976 20 20 19.7974 20 20 19.7976 20 20 
19.7974 20 20 19.7976 20 20 19.7974 20 20 
19.7976 20 20 19.7974 20 20 19.7994 20 20 
19.7955 20 20 19.7975 20.0019 20 19.7975 19.9981 20 
19.7975 20 20.0019 19.7975 20 19.9981 19.7989 20.0014 20 
19.7989 19.9986 20 19.7961 20.0014 20 19.7961 19.9986 20 
19.7989 20 20.0014 19.7989 20 19.9986 19.7961 20 20.0014 
19.7961 20 19.9986 19.7975 20.0014 20.0014 19.7975 20.0014 19.9986 
19.7975 19.9986 20.0014 19.7975 19.9986 19.9986 19.7986 20.0011 20.0011 
19.7986 20.0011 19.9989 19.7986 19.9989 20.0011 19.7986 19.9989 19.9989 
19.7964 20.0011 20.0011 19.7964 20.0011 19.9989 19.7964 19.9989 20.0011 
19.7964 19.9989 19.9989 19.799 20.0009 20.0009 19.799 20.0009 19.9991 
19.799 19.9991 20.0009 19.799 19.9991 19.9991 19.796 20.0009 20.0009 
19.796 20.0009 19.9991 19.796 19.9991 20.0009 19.796 19.9991 19.9991 
19.7984 20.0015 20.0009 19.7966 20.0015 20.0009 19.7984 20.0015 19.9991 
19.7966 20.0015 19.9991 19.7984 19.9985 20.0009 19.7966 19.9985 20.0009 
19.7984 19.9985 19.9991 19.7966 19.9985 19.9991 19.7984 20.0009 20.0015 
19.7984 19.9991 20.0015 19.7966 20.0009 20.0015 19.7966 19.9991 20.0015 
19.7984 20.0009 19.9985 19.7984 19.9991 19.9985 19.7966 20.0009 19.9985 
19.7966 19.9991 19.9985 19.7993 20.0006 20.0006 19.7993 20.0006 19.9994 
19.7993 19.9994 20.0006 19.7993 19.9994 19.9994 19.7957 20.0006 20.0006 
19.7957 20.0006 19.9994 19.7957 19.9994 20.0006 19.7957 19.9994 19.9994 
19.7981 20.0018 20.0006 19.7969 20.0018 20.0006 19.7981 20.0018 19.9994 
19.7969 20.0018 19.9994 19.7981 19.9982 20.0006 19.7969 19.9982 20.0006 
19.7981 19.9982 19.9994 19.7969 19.9982 19.9994 19.7981 20.0006 20.0018 
19.7981 19.9994 20.0018 19.7969 20.0006 20.0018 19.7969 19.9994 20.0018 
19.7981 20.0006 19.9982 19.7981 19.9994 19.9982 19.7969 20.0006 19.9982 
19.7969 19.9994 19.9982 19.7981 20.0013 20.0013 19.7981 20.0013 19.9987 
19.7981 19.9987 20.0013 19.7981 19.9987 19.9987 19.7969 20.0013 20.0013 
19.7969 20.0013 19.9987 19.7969 19.9987 20.0013 19.7969 19.9987 19.9987 
19.7988 20.0006 20.0013 19.7962 20.0006 20.0013 19.7988 20.0006 19.9987 
19.7962 20.0006 19.9987 19.7988 19.9994 20.0013 19.7962 19.9994 20.0013 
19.7988 19.9994 19.9987 19.7962 19.9994 19.9987 19.7988 20.0013 20.0006 
19.7988 19.9987 20.0006 19.7962 20.0013 20.0006 19.7962 19.9987 20.0006 
19.7988 20.0013 19.9994 19.7988 19.9987 19.9994 19.7962 20.0013 19.9994 
19.7962 19.9987 19.9994 19.7994 20.0003 20.0003 19.7994 20.0003 19.9997 
19.7994 19.9997 20.0003 19.7994 19.9997 19.9997 19.7956 20.0003 20.0003 
19.7956 20.0003 19.9997 19.7956 19.9997 20.0003 19.7956 19.9997 19.9997 
19.7977 20.0019 20.0003 19.7972 20.0019 20.0003 19.7977 20.0019 19.9997 
19.7972 20.0019 19.9997 19.7977 19.9981 20.0003 19.7972 19.9981 20.0003 
19.7977 19.9981 19.9997 19.7972 19.9981 19.9997 19.7977 20.0003 20.0019 
19.7977 19.9997 20.0019 19.7972 20.0003 20.0019 19.7972 19.9997 20.0019 
19.7977 20.0003 19.9981 19.7977 19.9997 19.9981 19.7972 20.0003 19.9981 
19.7972 19.9997 19.9981 19.7993 20.0007 20 19.7993 19.9993 20 
19.7957 20.0007 20 19.7957 19.9993 20 19.7975 20.0018 20.0007 
19.7975 20.0018 19.9993 19.7975 19.9982 20.0007 19.7975 19.9982 19.9993 
19.7982 20 20.0018 19.7968 20 20.0018 19.7982 20 19.9982 
19.7968 20 19.9982 19.7982 20.0018 20 19.7968 20.0018 20 
19.7982 19.9982 20 19.7968 19.9982 20 19.7993 20 20.0007 
19.7993 20 19.9993 19.7957 20 20.0007 19.7957 20 19.9993 
19.7975 20.0007 20.0018 19.7975 19.9993 20.0018 19.7975 20.0007 19.9982 
19.7975 19.9993 19.9982 19.7978 20.001 20.0016 19.7978 20.001 19.9984 
19.7978 19.999 20.0016 19.7978 19.999 19.9984 19.7972 20.001 20.0016 
19.7972 20.001 19.9984 19.7972 19.999 20.0016 19.7972 19.999 19.9984 
19.7991 20.0003 20.001 19.7959 20.0003 20.001 19.7991 20.0003 19.999 
19.7959 20.0003 19.999 19.7991 19.9997 20.001 19.7959 19.9997 20.001 
19.7991 19.9997 19.999 19.7959 19.9997 19.999 19.7985 20.0016 20.0003 
19.7985 19.9984 20.0003 19.7965 20.0016 20.0003 19.7965 19.9984 20.0003 
19.7985 20.0016 19.9997 19.7985 19.9984 19.9997 19.7965 20.0016 19.9997 
19.7965 19.9984 19.9997 19.7985 20.0003 20.0016 19.7985 20.0003 19.9984 
19.7965 20.0003 20.0016 19.7965 20.0003 19.9984 19.7985 19.9997 20.0016 
19.7985 19.9997 19.9984 19.7965 19.9997 20.0016 19.7965 19.9997 19.9984 
19.7978 20.0016 20.001 19.7978 19.9984 20.001 19.7978 20.0016 19.999 
19.7978 19.9984 19.999 19.7972 20.0016 20.001 19.7972 19.9984 20.001 
19.7972 20.0016 19.999 19.7972 19.9984 19.999 19.7991 20.001 20.0003 
19.7959 20.001 20.0003 19.7991 19.999 20.0003 19.7959 19.999 20.0003 
19.7991 20.001 19.9997 19.7959 20.001 19.9997 19.7991 19.999 19.9997 
19.7959 19.999 19.9997 19.809 20 20 19.7859 20 20 
19.7975 20.0116 20 19.7975 19.9884 20 19.7975 20 20.0116 
19.7975 20 19.9884 19.8057 20.0082 20 19.8057 19.9918 20 
19.7893 20.0082 20 19.7893 19.9918 20 19.8057 20 20.0082 
19.8057 20 19.9918 19.7893 20 20.0082 19.7893 20 19.9918 
19.7975 20.0082 20.0082 19.7975 20.0082 19.9918 19.7975 19.9918 20.0082 
19.7975 19.9918 19.9918 19.8042 20.0067 20.0067 19.8042 20.0067 19.9933 
19.8042 19.9933 20.0067 19.8042 19.9933 19.9933 19.7908 20.0067 20.0067 
19.7908 20.0067 19.9933 19.7908 19.9933 20.0067 19.7908 19.9933 19.9933 
19.8065 20.0051 20.0051 19.8065 20.0051 19.9949 19.8065 19.9949 20.0051 
19.8065 19.9949 19.9949 19.7885 20.0051 20.0051 19.7885 20.0051 19.9949 
19.7885 19.9949 20.0051 19.7885 19.9949 19.9949 19.8026 20.009 20.0051 
19.7924 20.009 20.0051 19.8026 20.009 19.9949 19.7924 20.009 19.9949 
19.8026 19.991 20.0051 19.7924 19.991 20.0051 19.8026 19.991 19.9949 
19.7924 19.991 19.9949 19.8026 20.0051 20.009 19.8026 19.9949 20.009 
19.7924 20.0051 20.009 19.7924 19.9949 20.009 19.8026 20.0051 19.991 
19.8026 19.9949 19.991 19.7924 20.0051 19.991 19.7924 19.9949 19.991 
19.808 20.0033 20.0033 19.808 20.0033 19.9967 19.808 19.9967 20.0033 
19.808 19.9967 19.9967 19.787 20.0033 20.0033 19.787 20.0033 19.9967 
19.787 19.9967 20.0033 19.787 19.9967 19.9967 19.8008 20.0105 20.0033 
19.7942 20.0105 20.0033 19.8008 20.0105 19.9967 19.7942 20.0105 19.9967 
19.8008 19.9895 20.0033 19.7942 19.9895 20.0033 19.8008 19.9895 19.9967 
19.7942 19.9895 19.9967 19.8008 20.0033 20.0105 19.8008 19.9967 20.0105 
19.7942 20.0033 20.0105 19.7942 19.9967 20.0105 19.8008 20.0033 19.9895 
19.8008 19.9967 19.9895 19.7942 20.0033 19.9895 19.7942 19.9967 19.9895 
19.8011 20.0078 20.0078 19.8011 20.0078 19.9922 19.8011 19.9922 20.0078 
19.8011 19.9922 19.9922 19.7939 20.0078 20.0078 19.7939 20.0078 19.9922 
19.7939 19.9922 20.0078 19.7939 19.9922 19.9922 19.8053 20.0036 20.0078 
19.7897 20.0036 20.0078 19.8053 20.0036 19.9922 19.7897 20.0036 19.9922 
19.8053 19.9964 20.0078 19.7897 19.9964 20.0078 19.8053 19.9964 19.9922 
[...]
CELL_DATA 45320
POINT_DATA 7760
SCALARS scalars float
LOOKUP_TABLE default
0.000132322 0.000131925 0.000132123 0.000132123 0.000132123 0.000132123 0.000132264 0.000132264 0.000131983 
0.000131983 0.000132264 0.000132264 0.000131983 0.000131983 0.000132123 0.000132123 0.000132123 0.000132123 
0.000132238 0.000132238 0.000132238 0.000132238 0.000132009 0.000132009 0.000132009 0.000132009 0.000132278 
0.000132278 0.000132278 0.000132278 0.000131969 0.000131969 0.000131969 0.000131969 0.000132212 0.000132035 
0.000132212 0.000132035 0.000132212 0.000132035 0.000132212 0.000132035 0.000132212 0.000132212 0.000132035 
0.000132035 0.000132212 0.000132212 0.000132035 0.000132035 0.000132304 0.000132304 0.000132304 0.000132304 
0.000131942 0.000131942 0.000131942 0.000131942 0.000132181 0.000132066 0.000132181 0.000132066 0.000132181 
0.000132066 0.000132181 0.000132066 0.000132181 0.000132181 0.000132066 0.000132066 0.000132181 0.000132181 
0.000132066 0.000132066 0.000132186 0.000132186 0.000132186 0.000132186 0.000132061 0.000132061 0.000132061 
0.000132061 0.000132257 0.00013199 0.000132257 0.00013199 0.000132257 0.00013199 0.000132257 0.00013199 
0.000132257 0.000132257 0.00013199 0.00013199 0.000132257 0.000132257 0.00013199 0.00013199 0.000132318 
0.000132318 0.000132318 0.000132318 0.000131928 0.000131928 0.000131928 0.000131928 0.000132149 0.000132098 
0.000132149 0.000132098 0.000132149 0.000132098 0.000132149 0.000132098 0.000132149 0.000132149 0.000132098 
0.000132098 0.000132149 0.000132149 0.000132098 0.000132098 0.00013231 0.00013231 0.000131937 0.000131937 
0.000132123 0.000132123 0.000132123 0.000132123 0.000132192 0.000132055 0.000132192 0.000132055 0.000132192 
0.000132055 0.000132192 0.000132055 0.00013231 0.00013231 0.000131937 0.000131937 0.000132123 0.000132123 
0.000132123 0.000132123 0.000132155 0.000132155 0.000132155 0.000132155 0.000132092 0.000132092 0.000132092 
0.000132092 0.000132289 0.000131957 0.000132289 0.000131957 0.000132289 0.000131957 0.000132289 0.000131957 
0.000132228 0.000132228 0.000132019 0.000132019 0.000132228 0.000132228 0.000132019 0.000132019 0.000132228 
0.000132228 0.000132019 0.000132019 0.000132228 0.000132228 0.000132019 0.000132019 0.000132155 0.000132155 
0.000132155 0.000132155 0.000132092 0.000132092 0.000132092 0.000132092 0.000132289 0.000131957 0.000132289 
0.000131957 0.000132289 0.000131957 0.000132289 0.000131957 0.000137655 0.000126743 0.000132196 0.000132196 
0.000132196 0.000132196 0.000136055 0.000136055 0.000128339 0.000128339 0.000136055 0.000136055 0.000128339 
0.000128339 0.000132196 0.000132196 0.000132196 0.000132196 0.000135347 0.000135347 0.000135347 0.000135347 
0.000129047 0.000129047 0.000129047 0.000129047 0.00013644 0.00013644 0.00013644 0.00013644 0.000127956 
0.000127956 0.000127956 0.000127956 0.000134623 0.00012977 0.000134623 0.00012977 0.000134623 0.00012977 
0.000134623 0.00012977 0.000134623 0.000134623 0.00012977 0.00012977 0.000134623 0.000134623 0.00012977 
0.00012977 0.000137177 0.000137177 0.000137177 0.000137177 0.00012722 0.00012722 0.00012722 0.00012722 
0.000133774 0.000130618 0.000133774 0.000130618 0.000133774 0.000130618 0.000133774 0.000130618 0.000133774 
0.000133774 0.000130618 0.000130618 0.000133774 0.000133774 0.000130618 0.000130618 0.00013391 0.00013391 
0.00013391 0.00013391 0.000130482 0.000130482 0.000130482 0.000130482 0.00013586 0.000128534 0.00013586 
0.000128534 0.00013586 0.000128534 0.00013586 0.000128534 0.00013586 0.00013586 0.000128534 0.000128534 
0.00013586 0.00013586 0.000128534 0.000128534 0.000137562 0.000137562 0.000137562 0.000137562 0.000126836 
0.000126836 0.000126836 0.000126836 0.000132905 0.000131487 0.000132905 0.000131487 0.000132905 0.000131487 
0.000132905 0.000131487 0.000132905 0.000132905 0.000131487 0.000131487 0.000132905 0.000132905 0.000131487 
0.000131487 0.000137318 0.000137318 0.000127079 0.000127079 0.000132196 0.000132196 0.000132196 0.000132196 
0.000134083 0.000130309 0.000134083 0.000130309 0.000134083 0.000130309 0.000134083 0.000130309 0.000137318 
0.000137318 0.000127079 0.000127079 0.000132196 0.000132196 0.000132196 0.000132196 0.000133063 0.000133063 
0.000133063 0.000133063 0.000131328 0.000131328 0.000131328 0.000131328 0.000136759 0.000127636 0.000136759 
0.000127636 0.000136759 0.000127636 0.000136759 0.000127636 0.000135062 0.000135062 0.000129331 0.000129331 
0.000135062 0.000135062 0.000129331 0.000129331 0.000135062 0.000135062 0.000129331 0.000129331 0.000135062 
0.000135062 0.000129331 0.000129331 0.000133063 0.000133063 0.000133063 0.000133063 0.000131328 0.000131328 
0.000131328 0.000131328 0.000136759 0.000127636 0.000136759 0.000127636 0.000136759 0.000127636 0.000136759 
0.000127636 0.000167149 0.000102432 0.000134672 0.000134672 0.000134672 0.000134672 0.00015761 0.00015761 
0.000111852 0.000111852 0.00015761 0.00015761 0.000111852 0.000111852 0.000134672 0.000134672 0.000134672 
0.000134672 0.000153392 0.000153392 0.000153392 0.000153392 0.000116031 0.000116031 0.000116031 0.000116031 
0.000159901 0.000159901 0.000159901 0.000159901 0.000109586 0.000109586 0.000109586 0.000109586 0.000149083 
0.000120307 0.000149083 0.000120307 0.000149083 0.000120307 0.000149083 0.000120307 0.000149083 0.000149083 
0.000120307 0.000120307 0.000149083 0.000149083 0.000120307 0.000120307 0.000164297 0.000164297 0.000164297 
0.000164297 0.000105244 0.000105244 0.000105244 0.000105244 0.00014404 0.000125323 0.00014404 0.000125323 
0.00014404 0.000125323 0.00014404 0.000125323 0.00014404 0.00014404 0.000125323 0.000125323 0.00014404 
0.00014404 0.000125323 0.000125323 0.000144849 0.000144849 0.000144849 0.000144849 0.000124518 0.000124518 
0.000124518 0.000124518 0.000156446 0.000113005 0.000156446 0.000113005 0.000156446 0.000113005 0.000156446 
0.000113005 0.000156446 0.000156446 0.000113005 0.000113005 0.000156446 0.000156446 0.000113005 0.000113005 
0.000166594 0.000166594 0.000166594 0.000166594 0.000102979 0.000102979 0.000102979 0.000102979 0.000138878 
0.00013047 0.000138878 0.00013047 0.000138878 0.00013047 0.000138878 0.00013047 0.000138878 0.000138878 
0.00013047 0.00013047 0.000138878 0.000138878 0.00013047 0.00013047 0.000165138 0.000165138 0.000104414 
0.000104414 0.000134672 0.000134672 0.000134672 0.000134672 0.000145873 0.000123499 0.000145873 0.000123499 
0.000145873 0.000123499 0.000145873 0.000123499 0.000165138 0.000165138 0.000104414 0.000104414 0.000134672 
0.000134672 0.000134672 0.000134672 0.00013982 0.00013982 0.00013982 0.00013982 0.000129529 0.000129529 
0.000129529 0.000129529 0.000161806 0.000107703 0.000161806 0.000107703 0.000161806 0.000107703 0.000161806 
0.000107703 0.000151695 0.000151695 0.000117714 0.000117714 0.000151695 0.000151695 0.000117714 0.000117714 
0.000151695 0.000151695 0.000117714 0.000117714 0.000151695 0.000151695 0.000117714 0.000117714 0.00013982 
0.00013982 0.00013982 0.00013982 0.000129529 0.000129529 0.000129529 0.000129529 0.000161806 0.000107703 
0.000161806 0.000107703 0.000161806 0.000107703 0.000161806 0.000107703 0.000270555 5.44479e-05 0.000161164 
0.000161164 0.000161164 0.000161164 0.000238172 0.000238172 8.5493e-05 8.5493e-05 0.000238172 0.000238172 
8.5493e-05 8.5493e-05 0.000161164 0.000161164 0.000161164 0.000161164 0.000223923 0.000223923 0.000223923 
0.000223923 9.92967e-05 9.92967e-05 9.92967e-05 9.92967e-05 0.000245926 0.000245926 0.000245926 0.000245926 
7.80186e-05 7.80186e-05 7.80186e-05 7.80186e-05 0.000209413 0.000113444 0.000209413 0.000113444 0.000209413 
0.000113444 0.000209413 0.000113444 0.000209413 0.000209413 0.000113444 0.000113444 0.000209413 0.000209413 
0.000113444 0.000113444 0.000260849 0.000260849 0.000260849 0.000260849 6.37061e-05 6.37061e-05 6.37061e-05 
6.37061e-05 0.000192481 0.000130071 0.000192481 0.000130071 0.000192481 0.000130071 0.000192481 0.000130071 
0.000192481 0.000192481 0.000130071 0.000130071 0.000192481 0.000192481 0.000130071 0.000130071 0.000195193 
0.000195193 0.000195193 0.000195193 0.000127399 0.000127399 0.000127399 0.000127399 0.000234234 8.92992e-05 
0.000234234 8.92992e-05 0.000234234 8.92992e-05 0.000234234 8.92992e-05 0.000234234 0.000234234 8.92992e-05 
8.92992e-05 0.000234234 0.000234234 8.92992e-05 8.92992e-05 0.000268664 0.000268664 0.000268664 0.000268664 
5.62488e-05 5.62488e-05 5.62488e-05 5.62488e-05 0.000175203 0.000147171 0.000175203 0.000147171 0.000175203 
0.000147171 0.000175203 0.000147171 0.000175203 0.000175203 0.000147171 0.000147171 0.000175203 0.000175203 
0.000147171 0.000147171 0.000263709 0.000263709 6.09736e-05 6.09736e-05 0.000161164 0.000161164 0.000161164 
0.000161164 0.000198629 0.000124019 0.000198629 0.000124019 0.000198629 0.000124019 0.000198629 0.000124019 
0.000263709 0.000263709 6.09736e-05 6.09736e-05 0.000161164 0.000161164 0.000161164 0.000161164 0.000178354 
0.000178354 0.000178354 0.000178354 0.000144042 0.000144042 0.000144042 0.000144042 0.000252388 7.18088e-05 
0.000252388 7.18088e-05 0.000252388 7.18088e-05 0.000252388 7.18088e-05 0.000218203 0.000218203 0.000104863 
0.000104863 0.000218203 0.000218203 0.000104863 0.000104863 0.000218203 0.000218203 0.000104863 0.000104863 
0.000218203 0.000218203 0.000104863 0.000104863 0.000178354 0.000178354 0.000178354 0.000178354 0.000144042 
0.000144042 0.000144042 0.000144042 0.000252388 7.18088e-05 0.000252388 7.18088e-05 0.000252388 7.18088e-05 
0.000252388 7.18088e-05 0.000588069 7.00482e-05 0.000320868 0.000320868 0.000320868 0.000320868 0.00050707 
0.00050707 0.000142811 0.000142811 0.00050707 0.00050707 0.000142811 0.000142811 0.000320868 0.000320868 
0.000320868 0.000320868 0.000472009 0.000472009 0.000472009 0.000472009 0.000175147 0.000175147 0.000175147 
0.000175147 0.00052629 0.00052629 0.00052629 0.00052629 0.000125304 0.000125304 0.000125304 0.000125304 
0.000436626 0.000208321 0.000436626 0.000208321 0.000436626 0.000208321 0.000436626 0.000208321 0.000436626 
0.000436626 0.000208321 0.000208321 0.000436626 0.000436626 0.000208321 0.000208321 0.000563585 0.000563585 
0.000563585 0.000563585 9.1766e-05 9.1766e-05 9.1766e-05 9.1766e-05 0.000395701 0.000247392 0.000395701 
0.000247392 0.000395701 0.000247392 0.000395701 0.000247392 0.000395701 0.000395701 0.000247392 0.000247392 
0.000395701 0.000395701 0.000247392 0.000247392 0.000402234 0.000402234 0.000402234 0.000402234 0.000241104 
0.000241104 0.000241104 0.000241104 0.000497347 0.000151726 0.000497347 0.000151726 0.000497347 0.000151726 
0.000497347 0.000151726 0.000497347 0.000497347 0.000151726 0.000151726 0.000497347 0.000497347 0.000151726 
0.000151726 0.000583283 0.000583283 0.000583283 0.000583283 7.42747e-05 7.42747e-05 7.42747e-05 7.42747e-05 
0.000354291 0.000287719 0.000354291 0.000287719 0.000354291 0.000287719 0.000354291 0.000287719 0.000354291 
0.000354291 0.000287719 0.000287719 0.000354291 0.000354291 0.000287719 0.000287719 0.000570781 0.000570781 
8.53586e-05 8.53586e-05 0.000320868 0.000320868 0.000320868 0.000320868 0.000410519 0.000233156 0.000410519 
0.000233156 0.000410519 0.000233156 0.000410519 0.000233156 0.000570781 0.000570781 8.53586e-05 8.53586e-05 
0.000320868 0.000320868 0.000320868 0.000320868 0.00036182 0.00036182 0.00036182 0.00036182 0.000280326 
0.000280326 0.000280326 0.000280326 0.00054239 0.000110757 0.00054239 0.000110757 0.00054239 0.000110757 
0.00054239 0.000110757 0.000458024 0.000458024 0.000188193 0.000188193 0.000458024 0.000458024 0.000188193 
0.000188193 0.000458024 0.000458024 0.000188193 0.000188193 0.000458024 0.000458024 0.000188193 0.000188193 
0.00036182 0.00036182 0.00036182 0.00036182 0.000280326 0.000280326 0.000280326 0.000280326 0.00054239 
0.000110757 0.00054239 0.000110757 0.00054239 0.000110757 0.00054239 0.000110757 0.00156626 0.000653814 
0.00107638 0.00107638 0.00107638 0.00107638 0.00140636 0.00140636 0.000779215 0.000779215 0.00140636 
0.00140636 0.000779215 0.000779215 0.00107638 0.00107638 0.00107638 0.00107638 0.0013408 0.0013408 
0.0013408 0.0013408 0.000833645 0.000833645 0.000833645 0.000833645 0.00144318 0.00144318 0.00144318 
0.00144318 0.000749466 0.000749466 0.000749466 0.000749466 0.00127654 0.000888987 0.00127654 0.000888987 
0.00127654 0.000888987 0.00127654 0.000888987 0.00127654 0.00127654 0.000888987 0.000888987 0.00127654 
0.00127654 0.000888987 0.000888987 0.00151657 0.00151657 0.00151657 0.00151657 0.000691765 0.000691765 
0.000691765 0.000691765 0.00120427 0.00095386 0.00120427 0.00095386 0.00120427 0.00095386 0.00120427 
0.00095386 0.00120427 0.00120427 0.00095386 0.00095386 0.00120427 0.00120427 0.00095386 0.00095386 
0.00121567 0.00121567 0.00121567 0.00121567 0.000943426 0.000943426 0.000943426 0.000943426 0.00138797 
0.000794282 0.00138797 0.000794282 0.00138797 0.000794282 0.00138797 0.000794282 0.00138797 0.00138797 
0.000794282 0.000794282 0.00138797 0.00138797 0.000794282 0.000794282 0.00155645 0.00155645 0.00155645 
0.00155645 0.000661239 0.000661239 0.000661239 0.000661239 0.00113294 0.00102089 0.00113294 0.00102089 
0.00113294 0.00102089 0.00113294 0.00102089 0.00113294 0.00113294 0.00102089 0.00102089 0.00113294 
0.00113294 0.00102089 0.00102089 0.00153105 0.00153105 0.000680621 0.000680621 0.00107638 0.00107638 
0.00107638 0.00107638 0.00123021 0.000930238 0.00123021 0.000930238 0.00123021 0.000930238 0.00123021 
0.000930238 0.00153105 0.00153105 0.000680621 0.000680621 0.00107638 0.00107638 0.00107638 0.00107638 
0.00114579 0.00114579 0.00114579 0.00114579 0.00100858 0.00100858 0.00100858 0.00100858 0.00147454 
0.000724561 0.00147454 0.000724561 0.00147454 0.000724561 0.00147454 0.000724561 0.00131519 0.00131519 
0.000855455 0.000855455 0.00131519 0.00131519 0.000855455 0.000855455 0.00131519 0.00131519 0.000855455 
0.000855455 0.00131519 0.00131519 0.000855455 0.000855455 0.00114579 0.00114579 0.00114579 0.00114579 
0.00100858 0.00100858 0.00100858 0.00100858 0.00147454 0.000724561 0.00147454 0.000724561 0.00147454 
0.000724561 0.00147454 0.000724561 0.00492775 0.00409664 0.00440844 0.00440844 0.00440844 0.00440844 
0.00469433 0.00469433 0.00421712 0.00421712 0.00469433 0.00469433 0.00421712 0.00421712 0.00440844 
0.00440844 0.00440844 0.00440844 0.00461885 0.00461885 0.00461885 0.00461885 0.00425905 0.00425905 
0.00425905 0.00425905 0.00474176 0.00474176 0.00474176 0.00474176 0.00419177 0.00419177 0.00419177 
0.00419177 0.0045553 0.00429681 0.0045553 0.00429681 0.0045553 0.00429681 0.0045553 0.00429681 
0.0045553 0.0045553 0.00429681 0.00429681 0.0045553 0.0045553 0.00429681 0.00429681 0.00484752 
0.00484752 0.00484752 0.00484752 0.00413701 0.00413701 0.00413701 0.00413701 0.0044947 0.00433674 
0.0044947 0.00433674 0.0044947 0.00433674 0.0044947 0.00433674 0.0044947 0.0044947 0.00433674 
0.00433674 0.0044947 0.0044947 0.00433674 0.00433674 0.00450358 0.00450358 0.00450358 0.00450358 
0.00433054 0.00433054 0.00433054 0.00433054 0.00467203 0.00422927 0.00467203 0.00422927 0.00467203 
0.00422927 0.00467203 0.00422927 0.00467203 0.00467203 0.00422927 0.00422927 0.00467203 0.00467203 
0.00422927 0.00422927 0.00491136 0.00491136 0.00491136 0.00491136 0.00410482 0.00410482 0.00410482 
0.00410482 0.00444403 0.00437575 0.00444403 0.00437575 0.00444403 0.00437575 0.00444403 0.00437575 
0.00444403 0.00444403 0.00437575 0.00437575 0.00444403 0.00444403 0.00437575 0.00437575 0.00487017 
0.00487017 0.00412552 0.00412552 0.00440844 0.00440844 0.00440844 0.00440844 0.00451525 0.0043226 
0.00451525 0.0043226 0.00451525 0.0043226 0.00451525 0.0043226 0.00487017 0.00487017 0.00412552 
0.00412552 0.00440844 0.00440844 0.00440844 0.00440844 0.00445261 0.00445261 0.00445261 0.00445261 
0.00436862 0.00436862 0.00436862 0.00436862 0.0047851 0.00416907 0.0047851 0.00416907 0.0047851 
0.00416907 0.0047851 0.00416907 0.00459234 0.00459234 0.00427445 0.00427445 0.00459234 0.00459234 
0.00427445 0.00427445 0.00459234 0.00459234 0.00427445 0.00427445 0.00459234 0.00459234 0.00427445 
0.00427445 0.00445261 0.00445261 0.00445261 0.00445261 0.00436862 0.00436862 0.00436862 0.00436862 
0.0047851 0.00416907 0.0047851 0.00416907 0.0047851 0.00416907 0.0047851 0.00416907 0.0162009 
0.0176653 0.016638 0.016638 0.016638 0.016638 0.0159767 0.0159767 0.0175253 0.0175253 
0.0159767 0.0159767 0.0175253 0.0175253 0.016638 0.016638 0.016638 0.016638 0.0160052 
0.0160052 0.0160052 0.0160052 0.0174065 0.0174065 0.0174065 0.0174065 0.0159901 0.0159901 
0.0159901 0.0159901 0.0175763 0.0175763 0.0175763 0.0175763 0.0160925 0.0172569 0.0160925 
0.0172569 0.0160925 0.0172569 0.0160925 0.0172569 0.0160925 0.0160925 0.0172569 0.0172569 
0.0160925 0.0160925 0.0172569 0.0172569 0.0160842 0.0160842 0.0160842 0.0160842 0.0176442 
0.0176442 0.0176442 0.0176442 0.0162505 0.0170541 0.0162505 0.0170541 0.0162505 0.0170541 
0.0162505 0.0170541 0.0162505 0.0162505 0.0170541 0.0170541 0.0162505 0.0162505 0.0170541 
0.0170541 0.0162219 0.0162219 0.0162219 0.0162219 0.0170882 0.0170882 0.0170882 0.0170882 
0.0159781 0.0174955 0.0159781 0.0174955 0.0159781 0.0174955 0.0159781 0.0174955 0.0159781 
0.0159781 0.0174955 0.0174955 0.0159781 0.0159781 0.0174955 0.0174955 0.0161744 0.0161744 
0.0161744 0.0161744 0.0176627 0.0176627 0.0176627 0.0176627 0.0164542 0.0168273 0.0164542 
0.0168273 0.0164542 0.0168273 0.0164542 0.0168273 0.0164542 0.0164542 0.0168273 0.0168273 
0.0164542 0.0164542 0.0168273 0.0168273 0.0161137 0.0161137 0.0176524 0.0176524 0.016638 
0.016638 0.016638 0.016638 0.0161873 0.0171306 0.0161873 0.0171306 0.0161873 0.0171306 
0.0161873 0.0171306 0.0161137 0.0161137 0.0176524 0.0176524 0.016638 0.016638 0.016638 
0.016638 0.0164147 0.0164147 0.0164147 0.0164147 0.0168695 0.0168695 0.0168695 0.0168695 
0.0160191 0.0176108 0.0160191 0.0176108 0.0160191 0.0176108 0.0160191 0.0176108 0.0160333 
0.0160333 0.0173506 0.0173506 0.0160333 0.0160333 0.0173506 0.0173506 0.0160333 0.0160333 
0.0173506 0.0173506 0.0160333 0.0160333 0.0173506 0.0173506 0.0164147 0.0164147 0.0164147 
0.0164147 0.0168695 0.0168695 0.0168695 0.0168695 0.0160191 0.0176108 0.0160191 0.0176108 
0.0160191 0.0176108 0.0160191 0.0176108 0.0415735 0.0482417 0.0438195 0.0438195 0.0438195 
0.0438195 0.0408931 0.0408931 0.0474551 0.0474551 0.0408931 0.0408931 0.0474551 0.0474551 
0.0438195 0.0438195 0.0438195 0.0438195 0.041098 0.041098 0.041098 0.041098 0.0469346 
0.0469346 0.0469346 0.0469346 0.0408927 0.0408927 0.0408927 0.0408927 0.0476959 0.0476959 
0.0476959 0.0476959 0.0415229 0.0463124 0.0415229 0.0463124 0.0415229 0.0463124 0.0415229 
0.0463124 0.0415229 0.0415229 0.0463124 0.0463124 0.0415229 0.0415229 0.0463124 0.0463124 
0.0411652 0.0411652 0.0411652 0.0411652 0.048068 0.048068 0.048068 0.048068 0.0422177 
0.0454913 0.0422177 0.0454913 0.0422177 0.0454913 0.0422177 0.0454913 0.0422177 0.0422177 
0.0454913 0.0454913 0.0422177 0.0422177 0.0454913 0.0454913 0.0420951 0.0420951 0.0420951 
0.0420951 0.0456286 0.0456286 0.0456286 0.0456286 0.0409251 0.047321 0.0409251 0.047321 
0.0409251 0.047321 0.0409251 0.047321 0.0409251 0.0409251 0.047321 0.047321 0.0409251 
0.0409251 0.047321 0.047321 0.0414778 0.0414778 0.0414778 0.0414778 0.0482122 0.0482122 
0.0482122 0.0482122 0.04307 0.0445817 0.04307 0.0445817 0.04307 0.0445817 0.04307 
0.0445817 0.04307 0.04307 0.0445817 0.0445817 0.04307 0.04307 0.0445817 0.0445817 
0.0412647 0.0412647 0.0481249 0.0481249 0.0438195 0.0438195 0.0438195 0.0438195 0.0419454 
0.0457995 0.0419454 0.0457995 0.0419454 0.0457995 0.0419454 0.0457995 0.0412647 0.0412647 
0.0481249 0.0481249 0.0438195 0.0438195 0.0438195 0.0438195 0.0429071 0.0429071 0.0429071 
0.0429071 0.0447512 0.0447512 0.0447512 0.0447512 0.040963 0.0478722 0.040963 0.0478722 
0.040963 0.0478722 0.040963 0.0478722 0.0412428 0.0412428 0.0466995 0.0466995 0.0412428 
0.0412428 0.0466995 0.0466995 0.0412428 0.0412428 0.0466995 0.0466995 0.0412428 0.0412428 
0.0466995 0.0466995 0.0429071 0.0429071 0.0429071 0.0429071 0.0447512 0.0447512 0.0447512 
0.0447512 0.040963 0.0478722 0.040963 0.0478722 0.040963 0.0478722 0.040963 0.0478722 